
data_Co3O4

_audit_creation_date              '4/13/2011 10:07:35 AM'
_audit_creation_method            'Generated by HighScore Plus 3.0.1'

_chemical_formula_sum             
;
Co3 O4
;

_database_code_PDF                '04-005-7243'
_publ_section_comment             
;
Status: Alternate PatternSubfiles: Alloy, metal or intermetalic;
Common Phase; Inorganic; LPF PatternQuality: Prototyping (P)
;

_publ_author_name                 
;
Belova I.D., Shalaginov V.V., Galyamov B.S., Roginskaya Y.E., Shub D.M.
;

_journal_name_full                
;
Russ. J. Inorg. Chem. (Engl. Transl.)
;

_journal_volume                   23
_journal_year                     1978

loop_
 _symmetry_equiv_pos_as_xyz
 'X, Y, Z'
 '-Y, X+1/4, Z+1/4'
 '-X+1/4, -Y+1/4, Z'
 'Y+1/4, -X, Z+1/4'
 'X+1/4, -Z, Y+1/4'
 'X, -Y+1/4, -Z+1/4'
 'X+1/4, Z+1/4, -Y'
 'Z+1/4, Y+1/4, -X'
 '-X+1/4, Y, -Z+1/4'
 '-Z, Y+1/4, X+1/4'
 'Z, X, Y'
 'Y, Z, X'
 '-Y+1/4, -Z+1/4, X'
 'Z, -X+1/4, -Y+1/4'
 '-Y+1/4, Z, -X+1/4'
 '-Z+1/4, -X+1/4, Y'
 '-Z+1/4, X, -Y+1/4'
 'Y, -Z+1/4, -X+1/4'
 'Y+1/4, X+1/4, -Z'
 '-Y, -X, -Z'
 '-X, Z+1/4, Y+1/4'
 '-X, -Z, -Y'
 'Z+1/4, -Y, X+1/4'
 '-Z, -Y, -X'
 '-X, -Y, -Z'
 'Y, -X+1/4, -Z+1/4'
 'X+1/4, Y+1/4, -Z'
 '-Y+1/4, X, -Z+1/4'
 '-X+1/4, Z, -Y+1/4'
 '-X, Y+1/4, Z+1/4'
 '-X+1/4, -Z+1/4, Y'
 '-Z+1/4, -Y+1/4, X'
 'X+1/4, -Y, Z+1/4'
 'Z, -Y+1/4, -X+1/4'
 '-Z, -X, -Y'
 '-Y, -Z, -X'
 'Y+1/4, Z+1/4, -X'
 '-Z, X+1/4, Y+1/4'
 'Y+1/4, -Z, X+1/4'
 'Z+1/4, X+1/4, -Y'
 'Z+1/4, -X, Y+1/4'
 '-Y, Z+1/4, X+1/4'
 '-Y+1/4, -X+1/4, Z'
 'Y, X, Z'
 'X, -Z+1/4, -Y+1/4'
 'X, Z, Y'
 '-Z+1/4, Y, -X+1/4'
 'Z, Y, X'
 'X, Y+1/2, Z+1/2'
 '-Y, X-1/4, Z-1/4'
 '-X+1/4, -Y-1/4, Z+1/2'
 'Y+1/4, -X+1/2, Z-1/4'
 'X+1/4, -Z+1/2, Y-1/4'
 'X, -Y-1/4, -Z-1/4'
 'X+1/4, Z-1/4, -Y+1/2'
 'Z+1/4, Y-1/4, -X+1/2'
 '-X+1/4, Y+1/2, -Z-1/4'
 '-Z, Y-1/4, X-1/4'
 'Z, X+1/2, Y+1/2'
 'Y, Z+1/2, X+1/2'
 '-Y+1/4, -Z-1/4, X+1/2'
 'Z, -X-1/4, -Y-1/4'
 '-Y+1/4, Z+1/2, -X-1/4'
 '-Z+1/4, -X-1/4, Y+1/2'
 '-Z+1/4, X+1/2, -Y-1/4'
 'Y, -Z-1/4, -X-1/4'
 'Y+1/4, X-1/4, -Z+1/2'
 '-Y, -X+1/2, -Z+1/2'
 '-X, Z-1/4, Y-1/4'
 '-X, -Z+1/2, -Y+1/2'
 'Z+1/4, -Y+1/2, X-1/4'
 '-Z, -Y+1/2, -X+1/2'
 '-X, -Y+1/2, -Z+1/2'
 'Y, -X-1/4, -Z-1/4'
 'X+1/4, Y-1/4, -Z+1/2'
 '-Y+1/4, X+1/2, -Z-1/4'
 '-X+1/4, Z+1/2, -Y-1/4'
 '-X, Y-1/4, Z-1/4'
 '-X+1/4, -Z-1/4, Y+1/2'
 '-Z+1/4, -Y-1/4, X+1/2'
 'X+1/4, -Y+1/2, Z-1/4'
 'Z, -Y-1/4, -X-1/4'
 '-Z, -X+1/2, -Y+1/2'
 '-Y, -Z+1/2, -X+1/2'
 'Y+1/4, Z-1/4, -X+1/2'
 '-Z, X-1/4, Y-1/4'
 'Y+1/4, -Z+1/2, X-1/4'
 'Z+1/4, X-1/4, -Y+1/2'
 'Z+1/4, -X+1/2, Y-1/4'
 '-Y, Z-1/4, X-1/4'
 '-Y+1/4, -X-1/4, Z+1/2'
 'Y, X+1/2, Z+1/2'
 'X, -Z-1/4, -Y-1/4'
 'X, Z+1/2, Y+1/2'
 '-Z+1/4, Y+1/2, -X-1/4'
 'Z, Y+1/2, X+1/2'
 'X+1/2, Y, Z+1/2'
 '-Y+1/2, X+1/4, Z-1/4'
 '-X-1/4, -Y+1/4, Z+1/2'
 'Y-1/4, -X, Z-1/4'
 'X-1/4, -Z, Y-1/4'
 'X+1/2, -Y+1/4, -Z-1/4'
 'X-1/4, Z+1/4, -Y+1/2'
 'Z-1/4, Y+1/4, -X+1/2'
 '-X-1/4, Y, -Z-1/4'
 '-Z+1/2, Y+1/4, X-1/4'
 'Z+1/2, X, Y+1/2'
 'Y+1/2, Z, X+1/2'
 '-Y-1/4, -Z+1/4, X+1/2'
 'Z+1/2, -X+1/4, -Y-1/4'
 '-Y-1/4, Z, -X-1/4'
 '-Z-1/4, -X+1/4, Y+1/2'
 '-Z-1/4, X, -Y-1/4'
 'Y+1/2, -Z+1/4, -X-1/4'
 'Y-1/4, X+1/4, -Z+1/2'
 '-Y+1/2, -X, -Z+1/2'
 '-X+1/2, Z+1/4, Y-1/4'
 '-X+1/2, -Z, -Y+1/2'
 'Z-1/4, -Y, X-1/4'
 '-Z+1/2, -Y, -X+1/2'
 '-X+1/2, -Y, -Z+1/2'
 'Y+1/2, -X+1/4, -Z-1/4'
 'X-1/4, Y+1/4, -Z+1/2'
 '-Y-1/4, X, -Z-1/4'
 '-X-1/4, Z, -Y-1/4'
 '-X+1/2, Y+1/4, Z-1/4'
 '-X-1/4, -Z+1/4, Y+1/2'
 '-Z-1/4, -Y+1/4, X+1/2'
 'X-1/4, -Y, Z-1/4'
 'Z+1/2, -Y+1/4, -X-1/4'
 '-Z+1/2, -X, -Y+1/2'
 '-Y+1/2, -Z, -X+1/2'
 'Y-1/4, Z+1/4, -X+1/2'
 '-Z+1/2, X+1/4, Y-1/4'
 'Y-1/4, -Z, X-1/4'
 'Z-1/4, X+1/4, -Y+1/2'
 'Z-1/4, -X, Y-1/4'
 '-Y+1/2, Z+1/4, X-1/4'
 '-Y-1/4, -X+1/4, Z+1/2'
 'Y+1/2, X, Z+1/2'
 'X+1/2, -Z+1/4, -Y-1/4'
 'X+1/2, Z, Y+1/2'
 '-Z-1/4, Y, -X-1/4'
 'Z+1/2, Y, X+1/2'
 'X+1/2, Y+1/2, Z'
 '-Y+1/2, X-1/4, Z+1/4'
 '-X-1/4, -Y-1/4, Z'
 'Y-1/4, -X+1/2, Z+1/4'
 'X-1/4, -Z+1/2, Y+1/4'
 'X+1/2, -Y-1/4, -Z+1/4'
 'X-1/4, Z-1/4, -Y'
 'Z-1/4, Y-1/4, -X'
 '-X-1/4, Y+1/2, -Z+1/4'
 '-Z+1/2, Y-1/4, X+1/4'
 'Z+1/2, X+1/2, Y'
 'Y+1/2, Z+1/2, X'
 '-Y-1/4, -Z-1/4, X'
 'Z+1/2, -X-1/4, -Y+1/4'
 '-Y-1/4, Z+1/2, -X+1/4'
 '-Z-1/4, -X-1/4, Y'
 '-Z-1/4, X+1/2, -Y+1/4'
 'Y+1/2, -Z-1/4, -X+1/4'
 'Y-1/4, X-1/4, -Z'
 '-Y+1/2, -X+1/2, -Z'
 '-X+1/2, Z-1/4, Y+1/4'
 '-X+1/2, -Z+1/2, -Y'
 'Z-1/4, -Y+1/2, X+1/4'
 '-Z+1/2, -Y+1/2, -X'
 '-X+1/2, -Y+1/2, -Z'
 'Y+1/2, -X-1/4, -Z+1/4'
 'X-1/4, Y-1/4, -Z'
 '-Y-1/4, X+1/2, -Z+1/4'
 '-X-1/4, Z+1/2, -Y+1/4'
 '-X+1/2, Y-1/4, Z+1/4'
 '-X-1/4, -Z-1/4, Y'
 '-Z-1/4, -Y-1/4, X'
 'X-1/4, -Y+1/2, Z+1/4'
 'Z+1/2, -Y-1/4, -X+1/4'
 '-Z+1/2, -X+1/2, -Y'
 '-Y+1/2, -Z+1/2, -X'
 'Y-1/4, Z-1/4, -X'
 '-Z+1/2, X-1/4, Y+1/4'
 'Y-1/4, -Z+1/2, X+1/4'
 'Z-1/4, X-1/4, -Y'
 'Z-1/4, -X+1/2, Y+1/4'
 '-Y+1/2, Z-1/4, X+1/4'
 '-Y-1/4, -X-1/4, Z'
 'Y+1/2, X+1/2, Z'
 'X+1/2, -Z-1/4, -Y+1/4'
 'X+1/2, Z+1/2, Y'
 '-Z-1/4, Y+1/2, -X+1/4'
 'Z+1/2, Y+1/2, X'

_xact_pref_orient_vector_h        0.00000000
_xact_pref_orient_vector_k        0.00000000
_xact_pref_orient_vector_l        1.00000000
_xact_pref_orient_param           1.000000
_xact_scale_factor                0.000100
_xact_cagliotti_U                 0.000000
_xact_cagliotti_V                 0.000000
_xact_cagliotti_W                 0.010000
_xact_shape_param_1               0.600000
_xact_shape_param_2               0.000000
_xact_shape_param_3               0.000000
_xact_asym_param_1                0.000000
_xact_asym_param_2                0.000000
_cell_length_a                    8.092000
_cell_length_b                    8.092000
_cell_length_c                    8.092000
_cell_angle_alpha                 90
_cell_angle_beta                  90
_cell_angle_gamma                 90

_symmetry_space_group_name_H-M    'F d -3 m'
_symmetry_Int_Tables_number       227


loop_
 _atom_site_label
 _atom_site_type_symbol
 _atom_site_fract_x
 _atom_site_fract_y
 _atom_site_fract_z
 _atom_site_U_iso_or_equiv
 _atom_site_thermal_displace_type
 _atom_site_occupancy
 _atom_site_symmetry_multiplicity
 _atom_site_Wyckoff_symbol
 _atom_site_calc_flag
O1 O 0.244500 0.244500 0.244500 0.006333 Uiso 1.000000 32 e d
CO1 Co 0.000000 0.000000 0.000000 0.006333 Uiso 1.000000 16 c d
CO2 Co 0.375000 0.375000 0.375000 0.006333 Uiso 1.000000 8 b d

loop_
 _atom_site_aniso_label
 _atom_site_aniso_U_11
 _atom_site_aniso_U_22
 _atom_site_aniso_U_33
 _atom_site_aniso_U_23
 _atom_site_aniso_U_13
 _atom_site_aniso_U_12
O1 0.000000 0.000000 0.000000 0.000000 0.000000 0.000000 
CO1 0.000000 0.000000 0.000000 0.000000 0.000000 0.000000 
CO2 0.000000 0.000000 0.000000 0.000000 0.000000 0.000000 

