
data_CoO

_audit_creation_date              '4/13/2011 10:08:04 AM'
_audit_creation_method            'Generated by HighScore Plus 3.0.1'

_chemical_formula_sum             
;
Co O
;

_database_code_PDF                '01-076-3832'
_publ_section_comment             
;
Status: Alternate PatternSubfiles: Alloy, metal or intermetalic;
Common Phase; ICSD Pattern; InorganicQuality: Indexed (I)
;

_publ_author_name                 
;
Liu, J.-F., Yin, S., Wu, H.-P., Zeng, Y.W., Hu, X.R., Wang, Y.W., Lv, G.L., Jiang, J.Z.
;

_journal_name_full                
;
J. Phys. Chem. B
;

_journal_volume                   110
_journal_year                     2006

loop_
 _symmetry_equiv_pos_as_xyz
 'X, Y, Z'
 '-Y, X, Z'
 '-X, -Y, Z'
 'Y, -X, Z'
 'X, -Z, Y'
 'X, -Y, -Z'
 'X, Z, -Y'
 'Z, Y, -X'
 '-X, Y, -Z'
 '-Z, Y, X'
 'Z, X, Y'
 'Y, Z, X'
 '-Y, -Z, X'
 'Z, -X, -Y'
 '-Y, Z, -X'
 '-Z, -X, Y'
 '-Z, X, -Y'
 'Y, -Z, -X'
 'Y, X, -Z'
 '-Y, -X, -Z'
 '-X, Z, Y'
 '-X, -Z, -Y'
 'Z, -Y, X'
 '-Z, -Y, -X'
 '-X, -Y, -Z'
 'Y, -X, -Z'
 'X, Y, -Z'
 '-Y, X, -Z'
 '-X, Z, -Y'
 '-X, Y, Z'
 '-X, -Z, Y'
 '-Z, -Y, X'
 'X, -Y, Z'
 'Z, -Y, -X'
 '-Z, -X, -Y'
 '-Y, -Z, -X'
 'Y, Z, -X'
 '-Z, X, Y'
 'Y, -Z, X'
 'Z, X, -Y'
 'Z, -X, Y'
 '-Y, Z, X'
 '-Y, -X, Z'
 'Y, X, Z'
 'X, -Z, -Y'
 'X, Z, Y'
 '-Z, Y, -X'
 'Z, Y, X'
 'X, Y+1/2, Z+1/2'
 '-Y, X+1/2, Z+1/2'
 '-X, -Y+1/2, Z+1/2'
 'Y, -X+1/2, Z+1/2'
 'X, -Z+1/2, Y+1/2'
 'X, -Y+1/2, -Z+1/2'
 'X, Z+1/2, -Y+1/2'
 'Z, Y+1/2, -X+1/2'
 '-X, Y+1/2, -Z+1/2'
 '-Z, Y+1/2, X+1/2'
 'Z, X+1/2, Y+1/2'
 'Y, Z+1/2, X+1/2'
 '-Y, -Z+1/2, X+1/2'
 'Z, -X+1/2, -Y+1/2'
 '-Y, Z+1/2, -X+1/2'
 '-Z, -X+1/2, Y+1/2'
 '-Z, X+1/2, -Y+1/2'
 'Y, -Z+1/2, -X+1/2'
 'Y, X+1/2, -Z+1/2'
 '-Y, -X+1/2, -Z+1/2'
 '-X, Z+1/2, Y+1/2'
 '-X, -Z+1/2, -Y+1/2'
 'Z, -Y+1/2, X+1/2'
 '-Z, -Y+1/2, -X+1/2'
 '-X, -Y+1/2, -Z+1/2'
 'Y, -X+1/2, -Z+1/2'
 'X, Y+1/2, -Z+1/2'
 '-Y, X+1/2, -Z+1/2'
 '-X, Z+1/2, -Y+1/2'
 '-X, Y+1/2, Z+1/2'
 '-X, -Z+1/2, Y+1/2'
 '-Z, -Y+1/2, X+1/2'
 'X, -Y+1/2, Z+1/2'
 'Z, -Y+1/2, -X+1/2'
 '-Z, -X+1/2, -Y+1/2'
 '-Y, -Z+1/2, -X+1/2'
 'Y, Z+1/2, -X+1/2'
 '-Z, X+1/2, Y+1/2'
 'Y, -Z+1/2, X+1/2'
 'Z, X+1/2, -Y+1/2'
 'Z, -X+1/2, Y+1/2'
 '-Y, Z+1/2, X+1/2'
 '-Y, -X+1/2, Z+1/2'
 'Y, X+1/2, Z+1/2'
 'X, -Z+1/2, -Y+1/2'
 'X, Z+1/2, Y+1/2'
 '-Z, Y+1/2, -X+1/2'
 'Z, Y+1/2, X+1/2'
 'X+1/2, Y, Z+1/2'
 '-Y+1/2, X, Z+1/2'
 '-X+1/2, -Y, Z+1/2'
 'Y+1/2, -X, Z+1/2'
 'X+1/2, -Z, Y+1/2'
 'X+1/2, -Y, -Z+1/2'
 'X+1/2, Z, -Y+1/2'
 'Z+1/2, Y, -X+1/2'
 '-X+1/2, Y, -Z+1/2'
 '-Z+1/2, Y, X+1/2'
 'Z+1/2, X, Y+1/2'
 'Y+1/2, Z, X+1/2'
 '-Y+1/2, -Z, X+1/2'
 'Z+1/2, -X, -Y+1/2'
 '-Y+1/2, Z, -X+1/2'
 '-Z+1/2, -X, Y+1/2'
 '-Z+1/2, X, -Y+1/2'
 'Y+1/2, -Z, -X+1/2'
 'Y+1/2, X, -Z+1/2'
 '-Y+1/2, -X, -Z+1/2'
 '-X+1/2, Z, Y+1/2'
 '-X+1/2, -Z, -Y+1/2'
 'Z+1/2, -Y, X+1/2'
 '-Z+1/2, -Y, -X+1/2'
 '-X+1/2, -Y, -Z+1/2'
 'Y+1/2, -X, -Z+1/2'
 'X+1/2, Y, -Z+1/2'
 '-Y+1/2, X, -Z+1/2'
 '-X+1/2, Z, -Y+1/2'
 '-X+1/2, Y, Z+1/2'
 '-X+1/2, -Z, Y+1/2'
 '-Z+1/2, -Y, X+1/2'
 'X+1/2, -Y, Z+1/2'
 'Z+1/2, -Y, -X+1/2'
 '-Z+1/2, -X, -Y+1/2'
 '-Y+1/2, -Z, -X+1/2'
 'Y+1/2, Z, -X+1/2'
 '-Z+1/2, X, Y+1/2'
 'Y+1/2, -Z, X+1/2'
 'Z+1/2, X, -Y+1/2'
 'Z+1/2, -X, Y+1/2'
 '-Y+1/2, Z, X+1/2'
 '-Y+1/2, -X, Z+1/2'
 'Y+1/2, X, Z+1/2'
 'X+1/2, -Z, -Y+1/2'
 'X+1/2, Z, Y+1/2'
 '-Z+1/2, Y, -X+1/2'
 'Z+1/2, Y, X+1/2'
 'X+1/2, Y+1/2, Z'
 '-Y+1/2, X+1/2, Z'
 '-X+1/2, -Y+1/2, Z'
 'Y+1/2, -X+1/2, Z'
 'X+1/2, -Z+1/2, Y'
 'X+1/2, -Y+1/2, -Z'
 'X+1/2, Z+1/2, -Y'
 'Z+1/2, Y+1/2, -X'
 '-X+1/2, Y+1/2, -Z'
 '-Z+1/2, Y+1/2, X'
 'Z+1/2, X+1/2, Y'
 'Y+1/2, Z+1/2, X'
 '-Y+1/2, -Z+1/2, X'
 'Z+1/2, -X+1/2, -Y'
 '-Y+1/2, Z+1/2, -X'
 '-Z+1/2, -X+1/2, Y'
 '-Z+1/2, X+1/2, -Y'
 'Y+1/2, -Z+1/2, -X'
 'Y+1/2, X+1/2, -Z'
 '-Y+1/2, -X+1/2, -Z'
 '-X+1/2, Z+1/2, Y'
 '-X+1/2, -Z+1/2, -Y'
 'Z+1/2, -Y+1/2, X'
 '-Z+1/2, -Y+1/2, -X'
 '-X+1/2, -Y+1/2, -Z'
 'Y+1/2, -X+1/2, -Z'
 'X+1/2, Y+1/2, -Z'
 '-Y+1/2, X+1/2, -Z'
 '-X+1/2, Z+1/2, -Y'
 '-X+1/2, Y+1/2, Z'
 '-X+1/2, -Z+1/2, Y'
 '-Z+1/2, -Y+1/2, X'
 'X+1/2, -Y+1/2, Z'
 'Z+1/2, -Y+1/2, -X'
 '-Z+1/2, -X+1/2, -Y'
 '-Y+1/2, -Z+1/2, -X'
 'Y+1/2, Z+1/2, -X'
 '-Z+1/2, X+1/2, Y'
 'Y+1/2, -Z+1/2, X'
 'Z+1/2, X+1/2, -Y'
 'Z+1/2, -X+1/2, Y'
 '-Y+1/2, Z+1/2, X'
 '-Y+1/2, -X+1/2, Z'
 'Y+1/2, X+1/2, Z'
 'X+1/2, -Z+1/2, -Y'
 'X+1/2, Z+1/2, Y'
 '-Z+1/2, Y+1/2, -X'
 'Z+1/2, Y+1/2, X'

_xact_pref_orient_vector_h        0.00000000
_xact_pref_orient_vector_k        0.00000000
_xact_pref_orient_vector_l        1.00000000
_xact_pref_orient_param           1.000000
_xact_scale_factor                0.000100
_xact_cagliotti_U                 0.000000
_xact_cagliotti_V                 0.000000
_xact_cagliotti_W                 0.010000
_xact_shape_param_1               0.600000
_xact_shape_param_2               0.000000
_xact_shape_param_3               0.000000
_xact_asym_param_1                0.000000
_xact_asym_param_2                0.000000
_cell_length_a                    4.260000
_cell_length_b                    4.260000
_cell_length_c                    4.260000
_cell_angle_alpha                 90
_cell_angle_beta                  90
_cell_angle_gamma                 90

_symmetry_space_group_name_H-M    'F m -3 m'
_symmetry_Int_Tables_number       225


loop_
 _atom_site_label
 _atom_site_type_symbol
 _atom_site_fract_x
 _atom_site_fract_y
 _atom_site_fract_z
 _atom_site_U_iso_or_equiv
 _atom_site_thermal_displace_type
 _atom_site_occupancy
 _atom_site_symmetry_multiplicity
 _atom_site_Wyckoff_symbol
 _atom_site_calc_flag
CO1 Co 0.000000 0.000000 0.000000 0.006333 Uiso 1.000000 4 a d
O1 O 0.500000 0.500000 0.500000 0.006333 Uiso 1.000000 4 b d

loop_
 _atom_site_aniso_label
 _atom_site_aniso_U_11
 _atom_site_aniso_U_22
 _atom_site_aniso_U_33
 _atom_site_aniso_U_23
 _atom_site_aniso_U_13
 _atom_site_aniso_U_12
CO1 0.000000 0.000000 0.000000 0.000000 0.000000 0.000000 
O1 0.000000 0.000000 0.000000 0.000000 0.000000 0.000000 

