##############################################################################
#                                                                            #
# Ca-La-O-Si       # Ca2La3[SiO4]3O                                #  550598 #
#                                                                            #
##############################################################################
#                                                                            #
#                           Pearson's Crystal Data                           #
#      Crystal Structure Database for Inorganic Compounds (on DVD)           #
#                              Release 2018/19                               #
#                  Editors: Pierre Villars and Karin Cenzual                 #
#                                                                            #
#   Copyright (c) ASM International & Material Phases Data System (MPDS),    #
# Switzerland & National Institute for Materials Science (NIMS), Japan, 2018 #
#                   All rights reserved. Version 2018.08                     #
#                                                                            #
#   This copy of Pearson's Crystal Data is licensed to:                      #
#   University of Alberta, Chemistry Department, 1-5 Installations License         #
#                                                                            #
##############################################################################

data_550598
_audit_creation_date                     2021-11-08
_audit_creation_method
;
Pearson's Crystal Data browser
;
#_database_code_PCD                      550598

# Entry summary

_chemical_formula_structural             'Ca La~4~ [Si O~4~]~3~ O'
_chemical_formula_sum                    'Ca La4 O13 Si3'
_chemical_name_mineral                   ?
_chemical_compound_source                ?
_chemical_name_structure_type            La~4.67~[SiO~4~]~3~O,hP42,176
_chemical_formula_weight                 888.0

# Bibliographic data

_publ_section_title
;
Preparation and properties of single crystals of silicate-oxyapatites CaLn~4~(SiO~4~)~3~O
;
_journal_coden_ASTM                      INOMAF
_journal_name_full                       'Inorg. Mater.'
_journal_year                            1975
_journal_volume                          11
_journal_page_first                      1137
_journal_page_last                       1138
_journal_language                        English
loop_
 _publ_author_name
 _publ_author_address
'Fedorov N.F.'
;
Russian Academy of Sciences (RAS)
Leningrad Lensovet Technological Institute
Saint Petersburg
Russia
;
'Andreev I.F.'
;
Russian Academy of Sciences (RAS)
Leningrad Lensovet Technological Institute
Saint Petersburg
Russia
;
'Meliksetyan N.S.'
;
Russian Academy of Sciences (RAS)
Leningrad Lensovet Technological Institute
Saint Petersburg
Russia
;

# Standardized crystallographic data

_cell_length_a                           9.76
_cell_length_b                           9.76
_cell_length_c                           7.13
_cell_angle_alpha                        90
_cell_angle_beta                         90
_cell_angle_gamma                        120
_cell_volume                             588.2
_cell_formula_units_Z                    2
_space_group_IT_number                   176
_space_group_name_H-M_alt                'P 63/m'
loop_
 _space_group_symop_id
 _space_group_symop_operation_xyz
 1 'x, y, z'
 2 '-x+y, -x, 1/2-z'
 3 '-x+y, -x, z'
 4 '-x, -y, -z'
 5 '-x, -y, 1/2+z'
 6 '-y, x-y, 1/2-z'
 7 '-y, x-y, z'
 8 'x, y, 1/2-z'
 9 'x-y, x, -z'
 10 'x-y, x, 1/2+z'
 11 'y, -x+y, -z'
 12 'y, -x+y, 1/2+z'

# Atomic positions taken from type-defining entry

loop_
 _atom_type_symbol
 O
 Si
 La
 Ca
loop_
 _atom_site_label
 _atom_site_type_symbol
 _atom_site_symmetry_multiplicity
 _atom_site_Wyckoff_symbol
 _atom_site_fract_x
 _atom_site_fract_y
 _atom_site_fract_z
 _atom_site_occupancy
 O1 O 12 i 0.1 0.346 0.073 1
 Si1 Si 6 h 0.032 0.4 0.25 1
 O2 O 6 h 0.124 0.592 0.25 1
 La1 La 6 h 0.246 0.233 0.25 1
 O3 O 6 h 0.485 0.152 0.25 1
 M1A Ca 4 f 0.333333 0.666667 0.0 0.500
 M1B La 4 f 0.333333 0.666667 0.0 0.500
 O4 O 2 a 0 0 0.25 1


_exptl_crystal_colour                    colorless
_exptl_crystal_density_meas              ?
_exptl_crystal_density_diffrn            5.01
_cell_measurement_temperature            ?
_cell_measurement_radiation              X-rays
_cell_measurement_reflns_used            ?
_diffrn_ambient_temperature              ?
_diffrn_measurement_device               film
_diffrn_measurement_device_type          ?
_diffrn_radiation_type                   ?
_diffrn_reflns_number                    ?
_exptl_absorpt_coefficient_mu            ?
_exptl_absorpt_correction_type           ?
_computing_structure_solution            ?
_refine_ls_number_parameters             ?
_refine_ls_number_reflns                 ?
_refine_ls_R_factor_gt                   ?
_refine_ls_wR_factor_gt                  ?

# End of data set 550598

